{
  "chemical json": 0,
  "name": "Propane",
  "inchi": "1/C3H8/c1-2/h1-2H3",
  "formula": "C 3 H 8",
  "atoms": {
    "elements": {
      "number": [  1,   1,   6,   1,   1,   6,   1,   1,   6,   1,   1 ]
    },
    "coords": {
      "position": [   3, 1,  -1.5,
                      3, -1, -0.020839,
                      2,  0, -1,
                      2, -1, -2.5,
                      0.3,  2.5,  0.5,
                      0.5, 1.5,  1,
                      1,  2.5,  1.5,
                      -2.5,  -1, -2.5,
                      -2,  0, -1,
                      -2, -1, 0.5,
                      -3, 1, -1 ]
    }
  },
  "bonds": {
    "connections": {
      "index": [ 2, 5,
                 5, 8,
                 2, 0,
                 2, 1,
                 2, 3,
                 5, 4,
                 5, 6,
                 8, 7,
                 8, 9,
                 8, 10]
    },
    "order": [ 1, 1, 1, 1, 1, 1, 1, 1, 1, 1 ]
  },
  "properties": {
    "molecular mass": 30.0690,
    "melting point": -172,
    "boiling point": -88
  }
}
